+ 0.5 0 1 tcp 40 ------- 0 0.0 2.0 0 0
- 0.5 0 1 tcp 40 ------- 0 0.0 2.0 0 0
r 0.550003 0 1 tcp 40 ------- 0 0.0 2.0 0 0
+ 0.550003 1 2 tcp 40 ------- 0 0.0 2.0 0 0
- 0.550003 1 2 tcp 40 ------- 0 0.0 2.0 0 0
r 0.554203 1 2 tcp 40 ------- 0 0.0 2.0 0 0
+ 0.554203 2 1 ack 40 ------- 0 2.0 0.0 0 1
- 0.554203 2 1 ack 40 ------- 0 2.0 0.0 0 1
r 0.558403 2 1 ack 40 ------- 0 2.0 0.0 0 1
+ 0.558403 1 0 ack 40 ------- 0 2.0 0.0 0 1
- 0.558403 1 0 ack 40 ------- 0 2.0 0.0 0 1
r 0.608406 1 0 ack 40 ------- 0 2.0 0.0 0 1
+ 0.608406 0 1 tcp 1540 ------- 0 0.0 2.0 1 2
- 0.608406 0 1 tcp 1540 ------- 0 0.0 2.0 1 2
+ 0.608406 0 1 tcp 1540 ------- 0 0.0 2.0 2 3
- 0.60853 0 1 tcp 1540 ------- 0 0.0 2.0 2 3
r 0.65853 0 1 tcp 1540 ------- 0 0.0 2.0 1 2
+ 0.65853 1 2 tcp 1540 ------- 0 0.0 2.0 1 2
- 0.65853 1 2 tcp 1540 ------- 0 0.0 2.0 1 2
r 0.658653 0 1 tcp 1540 ------- 0 0.0 2.0 2 3
+ 0.658653 1 2 tcp 1540 ------- 0 0.0 2.0 2 3
- 0.78173 1 2 tcp 1540 ------- 0 0.0 2.0 2 3
r 0.78273 1 2 tcp 1540 ------- 0 0.0 2.0 1 2
+ 0.78273 2 1 ack 40 ------- 0 2.0 0.0 1 4
- 0.78273 2 1 ack 40 ------- 0 2.0 0.0 1 4
r 0.78693 2 1 ack 40 ------- 0 2.0 0.0 1 4
+ 0.78693 1 0 ack 40 ------- 0 2.0 0.0 1 4
- 0.78693 1 0 ack 40 ------- 0 2.0 0.0 1 4
r 0.836933 1 0 ack 40 ------- 0 2.0 0.0 1 4
+ 0.836933 0 1 tcp 1540 ------- 0 0.0 2.0 3 5
- 0.836933 0 1 tcp 1540 ------- 0 0.0 2.0 3 5
+ 0.836933 0 1 tcp 1540 ------- 0 0.0 2.0 4 6
- 0.837056 0 1 tcp 1540 ------- 0 0.0 2.0 4 6
r 0.887056 0 1 tcp 1540 ------- 0 0.0 2.0 3 5
+ 0.887056 1 2 tcp 1540 ------- 0 0.0 2.0 3 5
r 0.887179 0 1 tcp 1540 ------- 0 0.0 2.0 4 6
+ 0.887179 1 2 tcp 1540 ------- 0 0.0 2.0 4 6
- 0.90493 1 2 tcp 1540 ------- 0 0.0 2.0 3 5
r 0.90593 1 2 tcp 1540 ------- 0 0.0 2.0 2 3
+ 0.90593 2 1 ack 40 ------- 0 2.0 0.0 2 7
- 0.90593 2 1 ack 40 ------- 0 2.0 0.0 2 7
r 0.91013 2 1 ack 40 ------- 0 2.0 0.0 2 7
+ 0.91013 1 0 ack 40 ------- 0 2.0 0.0 2 7
- 0.91013 1 0 ack 40 ------- 0 2.0 0.0 2 7
r 0.960133 1 0 ack 40 ------- 0 2.0 0.0 2 7
+ 0.960133 0 1 tcp 1540 ------- 0 0.0 2.0 5 8
- 0.960133 0 1 tcp 1540 ------- 0 0.0 2.0 5 8
+ 0.960133 0 1 tcp 1540 ------- 0 0.0 2.0 6 9
- 0.960256 0 1 tcp 1540 ------- 0 0.0 2.0 6 9
r 1.010256 0 1 tcp 1540 ------- 0 0.0 2.0 5 8
+ 1.010256 1 2 tcp 1540 ------- 0 0.0 2.0 5 8
r 1.010379 0 1 tcp 1540 ------- 0 0.0 2.0 6 9
+ 1.010379 1 2 tcp 1540 ------- 0 0.0 2.0 6 9
- 1.02813 1 2 tcp 1540 ------- 0 0.0 2.0 4 6
r 1.02913 1 2 tcp 1540 ------- 0 0.0 2.0 3 5
+ 1.02913 2 1 ack 40 ------- 0 2.0 0.0 3 10
- 1.02913 2 1 ack 40 ------- 0 2.0 0.0 3 10
r 1.03333 2 1 ack 40 ------- 0 2.0 0.0 3 10
+ 1.03333 1 0 ack 40 ------- 0 2.0 0.0 3 10
- 1.03333 1 0 ack 40 ------- 0 2.0 0.0 3 10
r 1.083333 1 0 ack 40 ------- 0 2.0 0.0 3 10
+ 1.083333 0 1 tcp 1540 ------- 0 0.0 2.0 7 11
- 1.083333 0 1 tcp 1540 ------- 0 0.0 2.0 7 11
+ 1.083333 0 1 tcp 1540 ------- 0 0.0 2.0 8 12
- 1.083456 0 1 tcp 1540 ------- 0 0.0 2.0 8 12
r 1.133456 0 1 tcp 1540 ------- 0 0.0 2.0 7 11
+ 1.133456 1 2 tcp 1540 ------- 0 0.0 2.0 7 11
r 1.133579 0 1 tcp 1540 ------- 0 0.0 2.0 8 12
+ 1.133579 1 2 tcp 1540 ------- 0 0.0 2.0 8 12
- 1.15133 1 2 tcp 1540 ------- 0 0.0 2.0 5 8
r 1.15233 1 2 tcp 1540 ------- 0 0.0 2.0 4 6
+ 1.15233 2 1 ack 40 ------- 0 2.0 0.0 4 13
- 1.15233 2 1 ack 40 ------- 0 2.0 0.0 4 13
r 1.15653 2 1 ack 40 ------- 0 2.0 0.0 4 13
+ 1.15653 1 0 ack 40 ------- 0 2.0 0.0 4 13
- 1.15653 1 0 ack 40 ------- 0 2.0 0.0 4 13
r 1.206533 1 0 ack 40 ------- 0 2.0 0.0 4 13
+ 1.206533 0 1 tcp 1540 ------- 0 0.0 2.0 9 14
- 1.206533 0 1 tcp 1540 ------- 0 0.0 2.0 9 14
+ 1.206533 0 1 tcp 1540 ------- 0 0.0 2.0 10 15
- 1.206656 0 1 tcp 1540 ------- 0 0.0 2.0 10 15
r 1.256656 0 1 tcp 1540 ------- 0 0.0 2.0 9 14
+ 1.256656 1 2 tcp 1540 ------- 0 0.0 2.0 9 14
r 1.256779 0 1 tcp 1540 ------- 0 0.0 2.0 10 15
+ 1.256779 1 2 tcp 1540 ------- 0 0.0 2.0 10 15
- 1.27453 1 2 tcp 1540 ------- 0 0.0 2.0 6 9
r 1.27553 1 2 tcp 1540 ------- 0 0.0 2.0 5 8
+ 1.27553 2 1 ack 40 ------- 0 2.0 0.0 5 16
- 1.27553 2 1 ack 40 ------- 0 2.0 0.0 5 16
r 1.27973 2 1 ack 40 ------- 0 2.0 0.0 5 16
+ 1.27973 1 0 ack 40 ------- 0 2.0 0.0 5 16
- 1.27973 1 0 ack 40 ------- 0 2.0 0.0 5 16
r 1.329733 1 0 ack 40 ------- 0 2.0 0.0 5 16
+ 1.329733 0 1 tcp 1540 ------- 0 0.0 2.0 11 17
- 1.329733 0 1 tcp 1540 ------- 0 0.0 2.0 11 17
+ 1.329733 0 1 tcp 1540 ------- 0 0.0 2.0 12 18
- 1.329856 0 1 tcp 1540 ------- 0 0.0 2.0 12 18
r 1.379856 0 1 tcp 1540 ------- 0 0.0 2.0 11 17
+ 1.379856 1 2 tcp 1540 ------- 0 0.0 2.0 11 17
r 1.379979 0 1 tcp 1540 ------- 0 0.0 2.0 12 18
+ 1.379979 1 2 tcp 1540 ------- 0 0.0 2.0 12 18
- 1.39773 1 2 tcp 1540 ------- 0 0.0 2.0 7 11
r 1.39873 1 2 tcp 1540 ------- 0 0.0 2.0 6 9
+ 1.39873 2 1 ack 40 ------- 0 2.0 0.0 6 19
- 1.39873 2 1 ack 40 ------- 0 2.0 0.0 6 19
r 1.40293 2 1 ack 40 ------- 0 2.0 0.0 6 19
+ 1.40293 1 0 ack 40 ------- 0 2.0 0.0 6 19
- 1.40293 1 0 ack 40 ------- 0 2.0 0.0 6 19
r 1.452933 1 0 ack 40 ------- 0 2.0 0.0 6 19
+ 1.452933 0 1 tcp 1540 ------- 0 0.0 2.0 13 20
- 1.452933 0 1 tcp 1540 ------- 0 0.0 2.0 13 20
+ 1.452933 0 1 tcp 1540 ------- 0 0.0 2.0 14 21
- 1.453056 0 1 tcp 1540 ------- 0 0.0 2.0 14 21
r 1.503056 0 1 tcp 1540 ------- 0 0.0 2.0 13 20
+ 1.503056 1 2 tcp 1540 ------- 0 0.0 2.0 13 20
r 1.503179 0 1 tcp 1540 ------- 0 0.0 2.0 14 21
+ 1.503179 1 2 tcp 1540 ------- 0 0.0 2.0 14 21
- 1.52093 1 2 tcp 1540 ------- 0 0.0 2.0 8 12
r 1.52193 1 2 tcp 1540 ------- 0 0.0 2.0 7 11
+ 1.52193 2 1 ack 40 ------- 0 2.0 0.0 7 22
- 1.52193 2 1 ack 40 ------- 0 2.0 0.0 7 22
r 1.52613 2 1 ack 40 ------- 0 2.0 0.0 7 22
+ 1.52613 1 0 ack 40 ------- 0 2.0 0.0 7 22
- 1.52613 1 0 ack 40 ------- 0 2.0 0.0 7 22
r 1.576133 1 0 ack 40 ------- 0 2.0 0.0 7 22
+ 1.576133 0 1 tcp 1540 ------- 0 0.0 2.0 15 23
- 1.576133 0 1 tcp 1540 ------- 0 0.0 2.0 15 23
+ 1.576133 0 1 tcp 1540 ------- 0 0.0 2.0 16 24
- 1.576256 0 1 tcp 1540 ------- 0 0.0 2.0 16 24
r 1.626256 0 1 tcp 1540 ------- 0 0.0 2.0 15 23
+ 1.626256 1 2 tcp 1540 ------- 0 0.0 2.0 15 23
r 1.626379 0 1 tcp 1540 ------- 0 0.0 2.0 16 24
+ 1.626379 1 2 tcp 1540 ------- 0 0.0 2.0 16 24
- 1.64413 1 2 tcp 1540 ------- 0 0.0 2.0 9 14
r 1.64513 1 2 tcp 1540 ------- 0 0.0 2.0 8 12
+ 1.64513 2 1 ack 40 ------- 0 2.0 0.0 8 25
- 1.64513 2 1 ack 40 ------- 0 2.0 0.0 8 25
r 1.64933 2 1 ack 40 ------- 0 2.0 0.0 8 25
+ 1.64933 1 0 ack 40 ------- 0 2.0 0.0 8 25
- 1.64933 1 0 ack 40 ------- 0 2.0 0.0 8 25
r 1.699333 1 0 ack 40 ------- 0 2.0 0.0 8 25
+ 1.699333 0 1 tcp 1540 ------- 0 0.0 2.0 17 26
- 1.699333 0 1 tcp 1540 ------- 0 0.0 2.0 17 26
+ 1.699333 0 1 tcp 1540 ------- 0 0.0 2.0 18 27
- 1.699456 0 1 tcp 1540 ------- 0 0.0 2.0 18 27
r 1.749456 0 1 tcp 1540 ------- 0 0.0 2.0 17 26
+ 1.749456 1 2 tcp 1540 ------- 0 0.0 2.0 17 26
r 1.749579 0 1 tcp 1540 ------- 0 0.0 2.0 18 27
+ 1.749579 1 2 tcp 1540 ------- 0 0.0 2.0 18 27
- 1.76733 1 2 tcp 1540 ------- 0 0.0 2.0 10 15
r 1.76833 1 2 tcp 1540 ------- 0 0.0 2.0 9 14
+ 1.76833 2 1 ack 40 ------- 0 2.0 0.0 9 28
- 1.76833 2 1 ack 40 ------- 0 2.0 0.0 9 28
r 1.77253 2 1 ack 40 ------- 0 2.0 0.0 9 28
+ 1.77253 1 0 ack 40 ------- 0 2.0 0.0 9 28
- 1.77253 1 0 ack 40 ------- 0 2.0 0.0 9 28
r 1.822533 1 0 ack 40 ------- 0 2.0 0.0 9 28
+ 1.822533 0 1 tcp 1540 ------- 0 0.0 2.0 19 29
- 1.822533 0 1 tcp 1540 ------- 0 0.0 2.0 19 29
+ 1.822533 0 1 tcp 1540 ------- 0 0.0 2.0 20 30
- 1.822656 0 1 tcp 1540 ------- 0 0.0 2.0 20 30
r 1.872656 0 1 tcp 1540 ------- 0 0.0 2.0 19 29
+ 1.872656 1 2 tcp 1540 ------- 0 0.0 2.0 19 29
r 1.872779 0 1 tcp 1540 ------- 0 0.0 2.0 20 30
+ 1.872779 1 2 tcp 1540 ------- 0 0.0 2.0 20 30
- 1.89053 1 2 tcp 1540 ------- 0 0.0 2.0 11 17
r 1.89153 1 2 tcp 1540 ------- 0 0.0 2.0 10 15
+ 1.89153 2 1 ack 40 ------- 0 2.0 0.0 10 31
- 1.89153 2 1 ack 40 ------- 0 2.0 0.0 10 31
r 1.89573 2 1 ack 40 ------- 0 2.0 0.0 10 31
+ 1.89573 1 0 ack 40 ------- 0 2.0 0.0 10 31
- 1.89573 1 0 ack 40 ------- 0 2.0 0.0 10 31
r 1.945733 1 0 ack 40 ------- 0 2.0 0.0 10 31
+ 1.945733 0 1 tcp 1540 ------- 0 0.0 2.0 21 32
- 1.945733 0 1 tcp 1540 ------- 0 0.0 2.0 21 32
+ 1.945733 0 1 tcp 1540 ------- 0 0.0 2.0 22 33
- 1.945856 0 1 tcp 1540 ------- 0 0.0 2.0 22 33
r 1.995856 0 1 tcp 1540 ------- 0 0.0 2.0 21 32
+ 1.995856 1 2 tcp 1540 ------- 0 0.0 2.0 21 32
r 1.995979 0 1 tcp 1540 ------- 0 0.0 2.0 22 33
+ 1.995979 1 2 tcp 1540 ------- 0 0.0 2.0 22 33
- 2.01373 1 2 tcp 1540 ------- 0 0.0 2.0 12 18
r 2.01473 1 2 tcp 1540 ------- 0 0.0 2.0 11 17
+ 2.01473 2 1 ack 40 ------- 0 2.0 0.0 11 34
- 2.01473 2 1 ack 40 ------- 0 2.0 0.0 11 34
r 2.01893 2 1 ack 40 ------- 0 2.0 0.0 11 34
+ 2.01893 1 0 ack 40 ------- 0 2.0 0.0 11 34
- 2.01893 1 0 ack 40 ------- 0 2.0 0.0 11 34
r 2.068933 1 0 ack 40 ------- 0 2.0 0.0 11 34
+ 2.068933 0 1 tcp 1540 ------- 0 0.0 2.0 23 35
- 2.068933 0 1 tcp 1540 ------- 0 0.0 2.0 23 35
+ 2.068933 0 1 tcp 1540 ------- 0 0.0 2.0 24 36
- 2.069056 0 1 tcp 1540 ------- 0 0.0 2.0 24 36
r 2.119056 0 1 tcp 1540 ------- 0 0.0 2.0 23 35
+ 2.119056 1 2 tcp 1540 ------- 0 0.0 2.0 23 35
r 2.119179 0 1 tcp 1540 ------- 0 0.0 2.0 24 36
+ 2.119179 1 2 tcp 1540 ------- 0 0.0 2.0 24 36
- 2.13693 1 2 tcp 1540 ------- 0 0.0 2.0 13 20
r 2.13793 1 2 tcp 1540 ------- 0 0.0 2.0 12 18
+ 2.13793 2 1 ack 40 ------- 0 2.0 0.0 12 37
- 2.13793 2 1 ack 40 ------- 0 2.0 0.0 12 37
r 2.14213 2 1 ack 40 ------- 0 2.0 0.0 12 37
+ 2.14213 1 0 ack 40 ------- 0 2.0 0.0 12 37
- 2.14213 1 0 ack 40 ------- 0 2.0 0.0 12 37
r 2.192133 1 0 ack 40 ------- 0 2.0 0.0 12 37
+ 2.192133 0 1 tcp 1540 ------- 0 0.0 2.0 25 38
- 2.192133 0 1 tcp 1540 ------- 0 0.0 2.0 25 38
+ 2.192133 0 1 tcp 1540 ------- 0 0.0 2.0 26 39
- 2.192256 0 1 tcp 1540 ------- 0 0.0 2.0 26 39
r 2.242256 0 1 tcp 1540 ------- 0 0.0 2.0 25 38
+ 2.242256 1 2 tcp 1540 ------- 0 0.0 2.0 25 38
r 2.242379 0 1 tcp 1540 ------- 0 0.0 2.0 26 39
+ 2.242379 1 2 tcp 1540 ------- 0 0.0 2.0 26 39
- 2.26013 1 2 tcp 1540 ------- 0 0.0 2.0 14 21
r 2.26113 1 2 tcp 1540 ------- 0 0.0 2.0 13 20
+ 2.26113 2 1 ack 40 ------- 0 2.0 0.0 13 40
- 2.26113 2 1 ack 40 ------- 0 2.0 0.0 13 40
r 2.26533 2 1 ack 40 ------- 0 2.0 0.0 13 40
+ 2.26533 1 0 ack 40 ------- 0 2.0 0.0 13 40
- 2.26533 1 0 ack 40 ------- 0 2.0 0.0 13 40
r 2.315333 1 0 ack 40 ------- 0 2.0 0.0 13 40
+ 2.315333 0 1 tcp 1540 ------- 0 0.0 2.0 27 41
- 2.315333 0 1 tcp 1540 ------- 0 0.0 2.0 27 41
+ 2.315333 0 1 tcp 1540 ------- 0 0.0 2.0 28 42
- 2.315456 0 1 tcp 1540 ------- 0 0.0 2.0 28 42
r 2.365456 0 1 tcp 1540 ------- 0 0.0 2.0 27 41
+ 2.365456 1 2 tcp 1540 ------- 0 0.0 2.0 27 41
r 2.365579 0 1 tcp 1540 ------- 0 0.0 2.0 28 42
+ 2.365579 1 2 tcp 1540 ------- 0 0.0 2.0 28 42
- 2.38333 1 2 tcp 1540 ------- 0 0.0 2.0 15 23
r 2.38433 1 2 tcp 1540 ------- 0 0.0 2.0 14 21
+ 2.38433 2 1 ack 40 ------- 0 2.0 0.0 14 43
- 2.38433 2 1 ack 40 ------- 0 2.0 0.0 14 43
r 2.38853 2 1 ack 40 ------- 0 2.0 0.0 14 43
+ 2.38853 1 0 ack 40 ------- 0 2.0 0.0 14 43
- 2.38853 1 0 ack 40 ------- 0 2.0 0.0 14 43
r 2.438533 1 0 ack 40 ------- 0 2.0 0.0 14 43
+ 2.438533 0 1 tcp 1540 ------- 0 0.0 2.0 29 44
- 2.438533 0 1 tcp 1540 ------- 0 0.0 2.0 29 44
+ 2.438533 0 1 tcp 1540 ------- 0 0.0 2.0 30 45
- 2.438656 0 1 tcp 1540 ------- 0 0.0 2.0 30 45
r 2.488656 0 1 tcp 1540 ------- 0 0.0 2.0 29 44
+ 2.488656 1 2 tcp 1540 ------- 0 0.0 2.0 29 44
r 2.488779 0 1 tcp 1540 ------- 0 0.0 2.0 30 45
+ 2.488779 1 2 tcp 1540 ------- 0 0.0 2.0 30 45
- 2.50653 1 2 tcp 1540 ------- 0 0.0 2.0 16 24
r 2.50753 1 2 tcp 1540 ------- 0 0.0 2.0 15 23
+ 2.50753 2 1 ack 40 ------- 0 2.0 0.0 15 46
- 2.50753 2 1 ack 40 ------- 0 2.0 0.0 15 46
r 2.51173 2 1 ack 40 ------- 0 2.0 0.0 15 46
+ 2.51173 1 0 ack 40 ------- 0 2.0 0.0 15 46
- 2.51173 1 0 ack 40 ------- 0 2.0 0.0 15 46
r 2.561733 1 0 ack 40 ------- 0 2.0 0.0 15 46
+ 2.561733 0 1 tcp 1540 ------- 0 0.0 2.0 31 47
- 2.561733 0 1 tcp 1540 ------- 0 0.0 2.0 31 47
+ 2.561733 0 1 tcp 1540 ------- 0 0.0 2.0 32 48
- 2.561856 0 1 tcp 1540 ------- 0 0.0 2.0 32 48
r 2.611856 0 1 tcp 1540 ------- 0 0.0 2.0 31 47
+ 2.611856 1 2 tcp 1540 ------- 0 0.0 2.0 31 47
r 2.611979 0 1 tcp 1540 ------- 0 0.0 2.0 32 48
+ 2.611979 1 2 tcp 1540 ------- 0 0.0 2.0 32 48
- 2.62973 1 2 tcp 1540 ------- 0 0.0 2.0 17 26
r 2.63073 1 2 tcp 1540 ------- 0 0.0 2.0 16 24
+ 2.63073 2 1 ack 40 ------- 0 2.0 0.0 16 49
- 2.63073 2 1 ack 40 ------- 0 2.0 0.0 16 49
r 2.63493 2 1 ack 40 ------- 0 2.0 0.0 16 49
+ 2.63493 1 0 ack 40 ------- 0 2.0 0.0 16 49
- 2.63493 1 0 ack 40 ------- 0 2.0 0.0 16 49
r 2.684933 1 0 ack 40 ------- 0 2.0 0.0 16 49
+ 2.684933 0 1 tcp 1540 ------- 0 0.0 2.0 33 50
- 2.684933 0 1 tcp 1540 ------- 0 0.0 2.0 33 50
+ 2.684933 0 1 tcp 1540 ------- 0 0.0 2.0 34 51
- 2.685056 0 1 tcp 1540 ------- 0 0.0 2.0 34 51
r 2.735056 0 1 tcp 1540 ------- 0 0.0 2.0 33 50
+ 2.735056 1 2 tcp 1540 ------- 0 0.0 2.0 33 50
r 2.735179 0 1 tcp 1540 ------- 0 0.0 2.0 34 51
+ 2.735179 1 2 tcp 1540 ------- 0 0.0 2.0 34 51
- 2.75293 1 2 tcp 1540 ------- 0 0.0 2.0 18 27
r 2.75393 1 2 tcp 1540 ------- 0 0.0 2.0 17 26
+ 2.75393 2 1 ack 40 ------- 0 2.0 0.0 17 52
- 2.75393 2 1 ack 40 ------- 0 2.0 0.0 17 52
r 2.75813 2 1 ack 40 ------- 0 2.0 0.0 17 52
+ 2.75813 1 0 ack 40 ------- 0 2.0 0.0 17 52
- 2.75813 1 0 ack 40 ------- 0 2.0 0.0 17 52
r 2.808133 1 0 ack 40 ------- 0 2.0 0.0 17 52
+ 2.808133 0 1 tcp 1540 ------- 0 0.0 2.0 35 53
- 2.808133 0 1 tcp 1540 ------- 0 0.0 2.0 35 53
+ 2.808133 0 1 tcp 1540 ------- 0 0.0 2.0 36 54
- 2.808256 0 1 tcp 1540 ------- 0 0.0 2.0 36 54
r 2.858256 0 1 tcp 1540 ------- 0 0.0 2.0 35 53
+ 2.858256 1 2 tcp 1540 ------- 0 0.0 2.0 35 53
r 2.858379 0 1 tcp 1540 ------- 0 0.0 2.0 36 54
+ 2.858379 1 2 tcp 1540 ------- 0 0.0 2.0 36 54
- 2.87613 1 2 tcp 1540 ------- 0 0.0 2.0 19 29
r 2.87713 1 2 tcp 1540 ------- 0 0.0 2.0 18 27
+ 2.87713 2 1 ack 40 ------- 0 2.0 0.0 18 55
- 2.87713 2 1 ack 40 ------- 0 2.0 0.0 18 55
r 2.88133 2 1 ack 40 ------- 0 2.0 0.0 18 55
+ 2.88133 1 0 ack 40 ------- 0 2.0 0.0 18 55
- 2.88133 1 0 ack 40 ------- 0 2.0 0.0 18 55
r 2.931333 1 0 ack 40 ------- 0 2.0 0.0 18 55
+ 2.931333 0 1 tcp 1540 ------- 0 0.0 2.0 37 56
- 2.931333 0 1 tcp 1540 ------- 0 0.0 2.0 37 56
+ 2.931333 0 1 tcp 1540 ------- 0 0.0 2.0 38 57
- 2.931456 0 1 tcp 1540 ------- 0 0.0 2.0 38 57
r 2.981456 0 1 tcp 1540 ------- 0 0.0 2.0 37 56
+ 2.981456 1 2 tcp 1540 ------- 0 0.0 2.0 37 56
r 2.981579 0 1 tcp 1540 ------- 0 0.0 2.0 38 57
+ 2.981579 1 2 tcp 1540 ------- 0 0.0 2.0 38 57
- 2.99933 1 2 tcp 1540 ------- 0 0.0 2.0 20 30
r 3.00033 1 2 tcp 1540 ------- 0 0.0 2.0 19 29
+ 3.00033 2 1 ack 40 ------- 0 2.0 0.0 19 58
- 3.00033 2 1 ack 40 ------- 0 2.0 0.0 19 58
r 3.00453 2 1 ack 40 ------- 0 2.0 0.0 19 58
+ 3.00453 1 0 ack 40 ------- 0 2.0 0.0 19 58
- 3.00453 1 0 ack 40 ------- 0 2.0 0.0 19 58
r 3.054533 1 0 ack 40 ------- 0 2.0 0.0 19 58
+ 3.054533 0 1 tcp 1540 ------- 0 0.0 2.0 39 59
- 3.054533 0 1 tcp 1540 ------- 0 0.0 2.0 39 59
r 3.104656 0 1 tcp 1540 ------- 0 0.0 2.0 39 59
+ 3.104656 1 2 tcp 1540 ------- 0 0.0 2.0 39 59
- 3.12253 1 2 tcp 1540 ------- 0 0.0 2.0 21 32
r 3.12353 1 2 tcp 1540 ------- 0 0.0 2.0 20 30
+ 3.12353 2 1 ack 40 ------- 0 2.0 0.0 20 60
- 3.12353 2 1 ack 40 ------- 0 2.0 0.0 20 60
r 3.12773 2 1 ack 40 ------- 0 2.0 0.0 20 60
+ 3.12773 1 0 ack 40 ------- 0 2.0 0.0 20 60
- 3.12773 1 0 ack 40 ------- 0 2.0 0.0 20 60
r 3.177733 1 0 ack 40 ------- 0 2.0 0.0 20 60
+ 3.177733 0 1 tcp 1540 ------- 0 0.0 2.0 40 61
- 3.177733 0 1 tcp 1540 ------- 0 0.0 2.0 40 61
r 3.227856 0 1 tcp 1540 ------- 0 0.0 2.0 40 61
+ 3.227856 1 2 tcp 1540 ------- 0 0.0 2.0 40 61
- 3.24573 1 2 tcp 1540 ------- 0 0.0 2.0 22 33
r 3.24673 1 2 tcp 1540 ------- 0 0.0 2.0 21 32
+ 3.24673 2 1 ack 40 ------- 0 2.0 0.0 21 62
- 3.24673 2 1 ack 40 ------- 0 2.0 0.0 21 62
r 3.25093 2 1 ack 40 ------- 0 2.0 0.0 21 62
+ 3.25093 1 0 ack 40 ------- 0 2.0 0.0 21 62
- 3.25093 1 0 ack 40 ------- 0 2.0 0.0 21 62
r 3.300933 1 0 ack 40 ------- 0 2.0 0.0 21 62
+ 3.300933 0 1 tcp 1540 ------- 0 0.0 2.0 41 63
- 3.300933 0 1 tcp 1540 ------- 0 0.0 2.0 41 63
r 3.351056 0 1 tcp 1540 ------- 0 0.0 2.0 41 63
+ 3.351056 1 2 tcp 1540 ------- 0 0.0 2.0 41 63
- 3.36893 1 2 tcp 1540 ------- 0 0.0 2.0 23 35
r 3.36993 1 2 tcp 1540 ------- 0 0.0 2.0 22 33
+ 3.36993 2 1 ack 40 ------- 0 2.0 0.0 22 64
- 3.36993 2 1 ack 40 ------- 0 2.0 0.0 22 64
r 3.37413 2 1 ack 40 ------- 0 2.0 0.0 22 64
+ 3.37413 1 0 ack 40 ------- 0 2.0 0.0 22 64
- 3.37413 1 0 ack 40 ------- 0 2.0 0.0 22 64
r 3.424133 1 0 ack 40 ------- 0 2.0 0.0 22 64
+ 3.424133 0 1 tcp 1540 ------- 0 0.0 2.0 42 65
- 3.424133 0 1 tcp 1540 ------- 0 0.0 2.0 42 65
r 3.474256 0 1 tcp 1540 ------- 0 0.0 2.0 42 65
+ 3.474256 1 2 tcp 1540 ------- 0 0.0 2.0 42 65
- 3.49213 1 2 tcp 1540 ------- 0 0.0 2.0 24 36
r 3.49313 1 2 tcp 1540 ------- 0 0.0 2.0 23 35
+ 3.49313 2 1 ack 40 ------- 0 2.0 0.0 23 66
- 3.49313 2 1 ack 40 ------- 0 2.0 0.0 23 66
r 3.49733 2 1 ack 40 ------- 0 2.0 0.0 23 66
+ 3.49733 1 0 ack 40 ------- 0 2.0 0.0 23 66
- 3.49733 1 0 ack 40 ------- 0 2.0 0.0 23 66
r 3.547333 1 0 ack 40 ------- 0 2.0 0.0 23 66
+ 3.547333 0 1 tcp 1540 ------- 0 0.0 2.0 43 67
- 3.547333 0 1 tcp 1540 ------- 0 0.0 2.0 43 67
r 3.597456 0 1 tcp 1540 ------- 0 0.0 2.0 43 67
+ 3.597456 1 2 tcp 1540 ------- 0 0.0 2.0 43 67
- 3.61533 1 2 tcp 1540 ------- 0 0.0 2.0 25 38
r 3.61633 1 2 tcp 1540 ------- 0 0.0 2.0 24 36
+ 3.61633 2 1 ack 40 ------- 0 2.0 0.0 24 68
- 3.61633 2 1 ack 40 ------- 0 2.0 0.0 24 68
r 3.62053 2 1 ack 40 ------- 0 2.0 0.0 24 68
+ 3.62053 1 0 ack 40 ------- 0 2.0 0.0 24 68
- 3.62053 1 0 ack 40 ------- 0 2.0 0.0 24 68
r 3.670533 1 0 ack 40 ------- 0 2.0 0.0 24 68
+ 3.670533 0 1 tcp 1540 ------- 0 0.0 2.0 44 69
- 3.670533 0 1 tcp 1540 ------- 0 0.0 2.0 44 69
r 3.720656 0 1 tcp 1540 ------- 0 0.0 2.0 44 69
+ 3.720656 1 2 tcp 1540 ------- 0 0.0 2.0 44 69
- 3.73853 1 2 tcp 1540 ------- 0 0.0 2.0 26 39
r 3.73953 1 2 tcp 1540 ------- 0 0.0 2.0 25 38
+ 3.73953 2 1 ack 40 ------- 0 2.0 0.0 25 70
- 3.73953 2 1 ack 40 ------- 0 2.0 0.0 25 70
r 3.74373 2 1 ack 40 ------- 0 2.0 0.0 25 70
+ 3.74373 1 0 ack 40 ------- 0 2.0 0.0 25 70
- 3.74373 1 0 ack 40 ------- 0 2.0 0.0 25 70
r 3.793733 1 0 ack 40 ------- 0 2.0 0.0 25 70
+ 3.793733 0 1 tcp 1540 ------- 0 0.0 2.0 45 71
- 3.793733 0 1 tcp 1540 ------- 0 0.0 2.0 45 71
r 3.843856 0 1 tcp 1540 ------- 0 0.0 2.0 45 71
+ 3.843856 1 2 tcp 1540 ------- 0 0.0 2.0 45 71
- 3.86173 1 2 tcp 1540 ------- 0 0.0 2.0 27 41
r 3.86273 1 2 tcp 1540 ------- 0 0.0 2.0 26 39
+ 3.86273 2 1 ack 40 ------- 0 2.0 0.0 26 72
- 3.86273 2 1 ack 40 ------- 0 2.0 0.0 26 72
r 3.86693 2 1 ack 40 ------- 0 2.0 0.0 26 72
+ 3.86693 1 0 ack 40 ------- 0 2.0 0.0 26 72
- 3.86693 1 0 ack 40 ------- 0 2.0 0.0 26 72
r 3.916933 1 0 ack 40 ------- 0 2.0 0.0 26 72
+ 3.916933 0 1 tcp 1540 ------- 0 0.0 2.0 46 73
- 3.916933 0 1 tcp 1540 ------- 0 0.0 2.0 46 73
r 3.967056 0 1 tcp 1540 ------- 0 0.0 2.0 46 73
+ 3.967056 1 2 tcp 1540 ------- 0 0.0 2.0 46 73
- 3.98493 1 2 tcp 1540 ------- 0 0.0 2.0 28 42
r 3.98593 1 2 tcp 1540 ------- 0 0.0 2.0 27 41
+ 3.98593 2 1 ack 40 ------- 0 2.0 0.0 27 74
- 3.98593 2 1 ack 40 ------- 0 2.0 0.0 27 74
r 3.99013 2 1 ack 40 ------- 0 2.0 0.0 27 74
+ 3.99013 1 0 ack 40 ------- 0 2.0 0.0 27 74
- 3.99013 1 0 ack 40 ------- 0 2.0 0.0 27 74
r 4.040133 1 0 ack 40 ------- 0 2.0 0.0 27 74
+ 4.040133 0 1 tcp 1540 ------- 0 0.0 2.0 47 75
- 4.040133 0 1 tcp 1540 ------- 0 0.0 2.0 47 75
r 4.090256 0 1 tcp 1540 ------- 0 0.0 2.0 47 75
+ 4.090256 1 2 tcp 1540 ------- 0 0.0 2.0 47 75
- 4.10813 1 2 tcp 1540 ------- 0 0.0 2.0 29 44
r 4.10913 1 2 tcp 1540 ------- 0 0.0 2.0 28 42
+ 4.10913 2 1 ack 40 ------- 0 2.0 0.0 28 76
- 4.10913 2 1 ack 40 ------- 0 2.0 0.0 28 76
r 4.11333 2 1 ack 40 ------- 0 2.0 0.0 28 76
+ 4.11333 1 0 ack 40 ------- 0 2.0 0.0 28 76
- 4.11333 1 0 ack 40 ------- 0 2.0 0.0 28 76
r 4.163333 1 0 ack 40 ------- 0 2.0 0.0 28 76
+ 4.163333 0 1 tcp 1540 ------- 0 0.0 2.0 48 77
- 4.163333 0 1 tcp 1540 ------- 0 0.0 2.0 48 77
r 4.213456 0 1 tcp 1540 ------- 0 0.0 2.0 48 77
+ 4.213456 1 2 tcp 1540 ------- 0 0.0 2.0 48 77
- 4.23133 1 2 tcp 1540 ------- 0 0.0 2.0 30 45
r 4.23233 1 2 tcp 1540 ------- 0 0.0 2.0 29 44
+ 4.23233 2 1 ack 40 ------- 0 2.0 0.0 29 78
- 4.23233 2 1 ack 40 ------- 0 2.0 0.0 29 78
r 4.23653 2 1 ack 40 ------- 0 2.0 0.0 29 78
+ 4.23653 1 0 ack 40 ------- 0 2.0 0.0 29 78
- 4.23653 1 0 ack 40 ------- 0 2.0 0.0 29 78
r 4.286533 1 0 ack 40 ------- 0 2.0 0.0 29 78
+ 4.286533 0 1 tcp 1540 ------- 0 0.0 2.0 49 79
- 4.286533 0 1 tcp 1540 ------- 0 0.0 2.0 49 79
r 4.336656 0 1 tcp 1540 ------- 0 0.0 2.0 49 79
+ 4.336656 1 2 tcp 1540 ------- 0 0.0 2.0 49 79
- 4.35453 1 2 tcp 1540 ------- 0 0.0 2.0 31 47
r 4.35553 1 2 tcp 1540 ------- 0 0.0 2.0 30 45
+ 4.35553 2 1 ack 40 ------- 0 2.0 0.0 30 80
- 4.35553 2 1 ack 40 ------- 0 2.0 0.0 30 80
r 4.35973 2 1 ack 40 ------- 0 2.0 0.0 30 80
+ 4.35973 1 0 ack 40 ------- 0 2.0 0.0 30 80
- 4.35973 1 0 ack 40 ------- 0 2.0 0.0 30 80
r 4.409733 1 0 ack 40 ------- 0 2.0 0.0 30 80
+ 4.409733 0 1 tcp 1540 ------- 0 0.0 2.0 50 81
- 4.409733 0 1 tcp 1540 ------- 0 0.0 2.0 50 81
r 4.459856 0 1 tcp 1540 ------- 0 0.0 2.0 50 81
+ 4.459856 1 2 tcp 1540 ------- 0 0.0 2.0 50 81
- 4.47773 1 2 tcp 1540 ------- 0 0.0 2.0 32 48
r 4.47873 1 2 tcp 1540 ------- 0 0.0 2.0 31 47
+ 4.47873 2 1 ack 40 ------- 0 2.0 0.0 31 82
- 4.47873 2 1 ack 40 ------- 0 2.0 0.0 31 82
r 4.48293 2 1 ack 40 ------- 0 2.0 0.0 31 82
+ 4.48293 1 0 ack 40 ------- 0 2.0 0.0 31 82
- 4.48293 1 0 ack 40 ------- 0 2.0 0.0 31 82
r 4.532933 1 0 ack 40 ------- 0 2.0 0.0 31 82
+ 4.532933 0 1 tcp 1540 ------- 0 0.0 2.0 51 83
- 4.532933 0 1 tcp 1540 ------- 0 0.0 2.0 51 83
r 4.583056 0 1 tcp 1540 ------- 0 0.0 2.0 51 83
+ 4.583056 1 2 tcp 1540 ------- 0 0.0 2.0 51 83
- 4.60093 1 2 tcp 1540 ------- 0 0.0 2.0 33 50
r 4.60193 1 2 tcp 1540 ------- 0 0.0 2.0 32 48
+ 4.60193 2 1 ack 40 ------- 0 2.0 0.0 32 84
- 4.60193 2 1 ack 40 ------- 0 2.0 0.0 32 84
r 4.60613 2 1 ack 40 ------- 0 2.0 0.0 32 84
+ 4.60613 1 0 ack 40 ------- 0 2.0 0.0 32 84
- 4.60613 1 0 ack 40 ------- 0 2.0 0.0 32 84
r 4.656133 1 0 ack 40 ------- 0 2.0 0.0 32 84
+ 4.656133 0 1 tcp 1540 ------- 0 0.0 2.0 52 85
- 4.656133 0 1 tcp 1540 ------- 0 0.0 2.0 52 85
r 4.706256 0 1 tcp 1540 ------- 0 0.0 2.0 52 85
+ 4.706256 1 2 tcp 1540 ------- 0 0.0 2.0 52 85
- 4.72413 1 2 tcp 1540 ------- 0 0.0 2.0 34 51
r 4.72513 1 2 tcp 1540 ------- 0 0.0 2.0 33 50
+ 4.72513 2 1 ack 40 ------- 0 2.0 0.0 33 86
- 4.72513 2 1 ack 40 ------- 0 2.0 0.0 33 86
r 4.72933 2 1 ack 40 ------- 0 2.0 0.0 33 86
+ 4.72933 1 0 ack 40 ------- 0 2.0 0.0 33 86
- 4.72933 1 0 ack 40 ------- 0 2.0 0.0 33 86
r 4.779333 1 0 ack 40 ------- 0 2.0 0.0 33 86
+ 4.779333 0 1 tcp 1540 ------- 0 0.0 2.0 53 87
- 4.779333 0 1 tcp 1540 ------- 0 0.0 2.0 53 87
r 4.829456 0 1 tcp 1540 ------- 0 0.0 2.0 53 87
+ 4.829456 1 2 tcp 1540 ------- 0 0.0 2.0 53 87
- 4.84733 1 2 tcp 1540 ------- 0 0.0 2.0 35 53
r 4.84833 1 2 tcp 1540 ------- 0 0.0 2.0 34 51
+ 4.84833 2 1 ack 40 ------- 0 2.0 0.0 34 88
- 4.84833 2 1 ack 40 ------- 0 2.0 0.0 34 88
r 4.85253 2 1 ack 40 ------- 0 2.0 0.0 34 88
+ 4.85253 1 0 ack 40 ------- 0 2.0 0.0 34 88
- 4.85253 1 0 ack 40 ------- 0 2.0 0.0 34 88
r 4.902533 1 0 ack 40 ------- 0 2.0 0.0 34 88
+ 4.902533 0 1 tcp 1540 ------- 0 0.0 2.0 54 89
- 4.902533 0 1 tcp 1540 ------- 0 0.0 2.0 54 89
r 4.952656 0 1 tcp 1540 ------- 0 0.0 2.0 54 89
+ 4.952656 1 2 tcp 1540 ------- 0 0.0 2.0 54 89
- 4.97053 1 2 tcp 1540 ------- 0 0.0 2.0 36 54
r 4.97153 1 2 tcp 1540 ------- 0 0.0 2.0 35 53
+ 4.97153 2 1 ack 40 ------- 0 2.0 0.0 35 90
- 4.97153 2 1 ack 40 ------- 0 2.0 0.0 35 90
r 4.97573 2 1 ack 40 ------- 0 2.0 0.0 35 90
+ 4.97573 1 0 ack 40 ------- 0 2.0 0.0 35 90
- 4.97573 1 0 ack 40 ------- 0 2.0 0.0 35 90
r 5.025733 1 0 ack 40 ------- 0 2.0 0.0 35 90
+ 5.025733 0 1 tcp 1540 ------- 0 0.0 2.0 55 91
- 5.025733 0 1 tcp 1540 ------- 0 0.0 2.0 55 91
r 5.075856 0 1 tcp 1540 ------- 0 0.0 2.0 55 91
+ 5.075856 1 2 tcp 1540 ------- 0 0.0 2.0 55 91
- 5.09373 1 2 tcp 1540 ------- 0 0.0 2.0 37 56
r 5.09473 1 2 tcp 1540 ------- 0 0.0 2.0 36 54
+ 5.09473 2 1 ack 40 ------- 0 2.0 0.0 36 92
- 5.09473 2 1 ack 40 ------- 0 2.0 0.0 36 92
r 5.09893 2 1 ack 40 ------- 0 2.0 0.0 36 92
+ 5.09893 1 0 ack 40 ------- 0 2.0 0.0 36 92
- 5.09893 1 0 ack 40 ------- 0 2.0 0.0 36 92
r 5.148933 1 0 ack 40 ------- 0 2.0 0.0 36 92
+ 5.148933 0 1 tcp 1540 ------- 0 0.0 2.0 56 93
- 5.148933 0 1 tcp 1540 ------- 0 0.0 2.0 56 93
r 5.199056 0 1 tcp 1540 ------- 0 0.0 2.0 56 93
+ 5.199056 1 2 tcp 1540 ------- 0 0.0 2.0 56 93
- 5.21693 1 2 tcp 1540 ------- 0 0.0 2.0 38 57
r 5.21793 1 2 tcp 1540 ------- 0 0.0 2.0 37 56
+ 5.21793 2 1 ack 40 ------- 0 2.0 0.0 37 94
- 5.21793 2 1 ack 40 ------- 0 2.0 0.0 37 94
r 5.22213 2 1 ack 40 ------- 0 2.0 0.0 37 94
+ 5.22213 1 0 ack 40 ------- 0 2.0 0.0 37 94
- 5.22213 1 0 ack 40 ------- 0 2.0 0.0 37 94
r 5.272133 1 0 ack 40 ------- 0 2.0 0.0 37 94
+ 5.272133 0 1 tcp 1540 ------- 0 0.0 2.0 57 95
- 5.272133 0 1 tcp 1540 ------- 0 0.0 2.0 57 95
r 5.322256 0 1 tcp 1540 ------- 0 0.0 2.0 57 95
+ 5.322256 1 2 tcp 1540 ------- 0 0.0 2.0 57 95
- 5.34013 1 2 tcp 1540 ------- 0 0.0 2.0 39 59
r 5.34113 1 2 tcp 1540 ------- 0 0.0 2.0 38 57
+ 5.34113 2 1 ack 40 ------- 0 2.0 0.0 38 96
- 5.34113 2 1 ack 40 ------- 0 2.0 0.0 38 96
r 5.34533 2 1 ack 40 ------- 0 2.0 0.0 38 96
+ 5.34533 1 0 ack 40 ------- 0 2.0 0.0 38 96
- 5.34533 1 0 ack 40 ------- 0 2.0 0.0 38 96
r 5.395333 1 0 ack 40 ------- 0 2.0 0.0 38 96
+ 5.395333 0 1 tcp 1540 ------- 0 0.0 2.0 58 97
- 5.395333 0 1 tcp 1540 ------- 0 0.0 2.0 58 97
r 5.445456 0 1 tcp 1540 ------- 0 0.0 2.0 58 97
+ 5.445456 1 2 tcp 1540 ------- 0 0.0 2.0 58 97
- 5.46333 1 2 tcp 1540 ------- 0 0.0 2.0 40 61
r 5.46433 1 2 tcp 1540 ------- 0 0.0 2.0 39 59
+ 5.46433 2 1 ack 40 ------- 0 2.0 0.0 39 98
- 5.46433 2 1 ack 40 ------- 0 2.0 0.0 39 98
r 5.46853 2 1 ack 40 ------- 0 2.0 0.0 39 98
+ 5.46853 1 0 ack 40 ------- 0 2.0 0.0 39 98
- 5.46853 1 0 ack 40 ------- 0 2.0 0.0 39 98
r 5.518533 1 0 ack 40 ------- 0 2.0 0.0 39 98
+ 5.518533 0 1 tcp 1540 ------- 0 0.0 2.0 59 99
- 5.518533 0 1 tcp 1540 ------- 0 0.0 2.0 59 99
r 5.568656 0 1 tcp 1540 ------- 0 0.0 2.0 59 99
+ 5.568656 1 2 tcp 1540 ------- 0 0.0 2.0 59 99
- 5.58653 1 2 tcp 1540 ------- 0 0.0 2.0 41 63
r 5.58753 1 2 tcp 1540 ------- 0 0.0 2.0 40 61
+ 5.58753 2 1 ack 40 ------- 0 2.0 0.0 40 100
- 5.58753 2 1 ack 40 ------- 0 2.0 0.0 40 100
r 5.59173 2 1 ack 40 ------- 0 2.0 0.0 40 100
+ 5.59173 1 0 ack 40 ------- 0 2.0 0.0 40 100
- 5.59173 1 0 ack 40 ------- 0 2.0 0.0 40 100
r 5.641733 1 0 ack 40 ------- 0 2.0 0.0 40 100
+ 5.641733 0 1 tcp 1540 ------- 0 0.0 2.0 60 101
- 5.641733 0 1 tcp 1540 ------- 0 0.0 2.0 60 101
r 5.691856 0 1 tcp 1540 ------- 0 0.0 2.0 60 101
+ 5.691856 1 2 tcp 1540 ------- 0 0.0 2.0 60 101
- 5.70973 1 2 tcp 1540 ------- 0 0.0 2.0 42 65
r 5.71073 1 2 tcp 1540 ------- 0 0.0 2.0 41 63
+ 5.71073 2 1 ack 40 ------- 0 2.0 0.0 41 102
- 5.71073 2 1 ack 40 ------- 0 2.0 0.0 41 102
r 5.71493 2 1 ack 40 ------- 0 2.0 0.0 41 102
+ 5.71493 1 0 ack 40 ------- 0 2.0 0.0 41 102
- 5.71493 1 0 ack 40 ------- 0 2.0 0.0 41 102
r 5.764933 1 0 ack 40 ------- 0 2.0 0.0 41 102
+ 5.764933 0 1 tcp 1540 ------- 0 0.0 2.0 61 103
- 5.764933 0 1 tcp 1540 ------- 0 0.0 2.0 61 103
r 5.815056 0 1 tcp 1540 ------- 0 0.0 2.0 61 103
+ 5.815056 1 2 tcp 1540 ------- 0 0.0 2.0 61 103
- 5.83293 1 2 tcp 1540 ------- 0 0.0 2.0 43 67
r 5.83393 1 2 tcp 1540 ------- 0 0.0 2.0 42 65
+ 5.83393 2 1 ack 40 ------- 0 2.0 0.0 42 104
- 5.83393 2 1 ack 40 ------- 0 2.0 0.0 42 104
r 5.83813 2 1 ack 40 ------- 0 2.0 0.0 42 104
+ 5.83813 1 0 ack 40 ------- 0 2.0 0.0 42 104
- 5.83813 1 0 ack 40 ------- 0 2.0 0.0 42 104
r 5.888133 1 0 ack 40 ------- 0 2.0 0.0 42 104
+ 5.888133 0 1 tcp 1540 ------- 0 0.0 2.0 62 105
- 5.888133 0 1 tcp 1540 ------- 0 0.0 2.0 62 105
r 5.938256 0 1 tcp 1540 ------- 0 0.0 2.0 62 105
+ 5.938256 1 2 tcp 1540 ------- 0 0.0 2.0 62 105
- 5.95613 1 2 tcp 1540 ------- 0 0.0 2.0 44 69
r 5.95713 1 2 tcp 1540 ------- 0 0.0 2.0 43 67
+ 5.95713 2 1 ack 40 ------- 0 2.0 0.0 43 106
- 5.95713 2 1 ack 40 ------- 0 2.0 0.0 43 106
r 5.96133 2 1 ack 40 ------- 0 2.0 0.0 43 106
+ 5.96133 1 0 ack 40 ------- 0 2.0 0.0 43 106
- 5.96133 1 0 ack 40 ------- 0 2.0 0.0 43 106
r 6.011333 1 0 ack 40 ------- 0 2.0 0.0 43 106
+ 6.011333 0 1 tcp 1540 ------- 0 0.0 2.0 63 107
- 6.011333 0 1 tcp 1540 ------- 0 0.0 2.0 63 107
r 6.061456 0 1 tcp 1540 ------- 0 0.0 2.0 63 107
+ 6.061456 1 2 tcp 1540 ------- 0 0.0 2.0 63 107
- 6.07933 1 2 tcp 1540 ------- 0 0.0 2.0 45 71
r 6.08033 1 2 tcp 1540 ------- 0 0.0 2.0 44 69
+ 6.08033 2 1 ack 40 ------- 0 2.0 0.0 44 108
- 6.08033 2 1 ack 40 ------- 0 2.0 0.0 44 108
r 6.08453 2 1 ack 40 ------- 0 2.0 0.0 44 108
+ 6.08453 1 0 ack 40 ------- 0 2.0 0.0 44 108
- 6.08453 1 0 ack 40 ------- 0 2.0 0.0 44 108
r 6.134533 1 0 ack 40 ------- 0 2.0 0.0 44 108
+ 6.134533 0 1 tcp 1540 ------- 0 0.0 2.0 64 109
- 6.134533 0 1 tcp 1540 ------- 0 0.0 2.0 64 109
r 6.184656 0 1 tcp 1540 ------- 0 0.0 2.0 64 109
+ 6.184656 1 2 tcp 1540 ------- 0 0.0 2.0 64 109
- 6.20253 1 2 tcp 1540 ------- 0 0.0 2.0 46 73
r 6.20353 1 2 tcp 1540 ------- 0 0.0 2.0 45 71
+ 6.20353 2 1 ack 40 ------- 0 2.0 0.0 45 110
- 6.20353 2 1 ack 40 ------- 0 2.0 0.0 45 110
r 6.20773 2 1 ack 40 ------- 0 2.0 0.0 45 110
+ 6.20773 1 0 ack 40 ------- 0 2.0 0.0 45 110
- 6.20773 1 0 ack 40 ------- 0 2.0 0.0 45 110
r 6.257733 1 0 ack 40 ------- 0 2.0 0.0 45 110
+ 6.257733 0 1 tcp 1540 ------- 0 0.0 2.0 65 111
- 6.257733 0 1 tcp 1540 ------- 0 0.0 2.0 65 111
r 6.307856 0 1 tcp 1540 ------- 0 0.0 2.0 65 111
+ 6.307856 1 2 tcp 1540 ------- 0 0.0 2.0 65 111
- 6.32573 1 2 tcp 1540 ------- 0 0.0 2.0 47 75
r 6.32673 1 2 tcp 1540 ------- 0 0.0 2.0 46 73
+ 6.32673 2 1 ack 40 ------- 0 2.0 0.0 46 112
- 6.32673 2 1 ack 40 ------- 0 2.0 0.0 46 112
r 6.33093 2 1 ack 40 ------- 0 2.0 0.0 46 112
+ 6.33093 1 0 ack 40 ------- 0 2.0 0.0 46 112
- 6.33093 1 0 ack 40 ------- 0 2.0 0.0 46 112
r 6.380933 1 0 ack 40 ------- 0 2.0 0.0 46 112
+ 6.380933 0 1 tcp 1540 ------- 0 0.0 2.0 66 113
- 6.380933 0 1 tcp 1540 ------- 0 0.0 2.0 66 113
r 6.431056 0 1 tcp 1540 ------- 0 0.0 2.0 66 113
+ 6.431056 1 2 tcp 1540 ------- 0 0.0 2.0 66 113
- 6.44893 1 2 tcp 1540 ------- 0 0.0 2.0 48 77